<?xml version="1.0" encoding="UTF-8"?>

<!-- generated on 2025-02-09 11:38:32 by Eclipse SUMO GUI Version 1.20.0
<configuration xmlns:xsi="http://www.w3.org/2001/XMLSchema-instance" xsi:noNamespaceSchemaLocation="http://sumo.dlr.de/xsd/sumoConfiguration.xsd">

    <input>
        <net-file value="maps/city1.net.xml"/>
        <route-files value="maps/city1.rou.xml"/>
    </input>

    <output>
        <tripinfo-output value="tripinfo.xml"/>
    </output>

    <time>
        <begin value="0"/>
        <end value="501"/>
    </time>

    <report>
        <verbose value="true"/>
        <no-step-log value="true"/>
    </report>

    <traci_server>
        <remote-port value="50071"/>
    </traci_server>

</configuration>
-->

<tripinfos xmlns:xsi="http://www.w3.org/2001/XMLSchema-instance" xsi:noNamespaceSchemaLocation="http://sumo.dlr.de/xsd/tripinfo_file.xsd">
    <tripinfo id="13" depart="13.00" departLane="-gneE14_0" departPos="5.10" departSpeed="0.00" departDelay="0.00" arrival="23.00" arrivalLane="-gneE14_0" arrivalPos="89.60" arrivalSpeed="14.27" duration="10.00" routeLength="84.50" waitingTime="0.00" waitingCount="0" stopTime="0.00" timeLoss="3.61" rerouteNo="0" devices="tripinfo_13" vType="DEFAULT_VEHTYPE" speedFactor="1.09" vaporized=""/>
    <tripinfo id="8" depart="8.00" departLane="-gneE26_0" departPos="5.10" departSpeed="0.00" departDelay="0.00" arrival="58.00" arrivalLane="gneE14_0" arrivalPos="89.60" arrivalSpeed="14.14" duration="50.00" routeLength="391.59" waitingTime="11.00" waitingCount="1" stopTime="0.00" timeLoss="22.08" rerouteNo="0" devices="tripinfo_8" vType="DEFAULT_VEHTYPE" speedFactor="1.05" vaporized=""/>
    <tripinfo id="35" depart="36.00" departLane="-gneE25_0" departPos="5.10" departSpeed="0.00" departDelay="1.00" arrival="86.00" arrivalLane="gneE6_0" arrivalPos="92.80" arrivalSpeed="11.95" duration="50.00" routeLength="477.06" waitingTime="0.00" waitingCount="0" stopTime="0.00" timeLoss="8.19" rerouteNo="0" devices="tripinfo_35" vType="DEFAULT_VEHTYPE" speedFactor="0.87" vaporized=""/>
    <tripinfo id="53" depart="53.00" departLane="-gneE18_0" departPos="5.10" departSpeed="0.00" departDelay="0.00" arrival="87.00" arrivalLane="-gneE5_0" arrivalPos="85.60" arrivalSpeed="9.65" duration="34.00" routeLength="275.23" waitingTime="0.00" waitingCount="0" stopTime="0.00" timeLoss="10.94" rerouteNo="0" devices="tripinfo_53" vType="DEFAULT_VEHTYPE" speedFactor="0.90" vaporized=""/>
    <tripinfo id="47" depart="48.00" departLane="-gneE13_0" departPos="5.10" departSpeed="0.00" departDelay="1.00" arrival="89.00" arrivalLane="-gneE38_0" arrivalPos="296.80" arrivalSpeed="15.96" duration="41.00" routeLength="490.87" waitingTime="0.00" waitingCount="0" stopTime="0.00" timeLoss="10.43" rerouteNo="0" devices="tripinfo_47" vType="DEFAULT_VEHTYPE" speedFactor="1.17" vaporized=""/>
    <tripinfo id="90" depart="90.00" departLane="gneE23_0" departPos="5.10" departSpeed="0.00" departDelay="0.00" arrival="99.00" arrivalLane="gneE23_0" arrivalPos="89.60" arrivalSpeed="14.11" duration="9.00" routeLength="84.50" waitingTime="0.00" waitingCount="0" stopTime="0.00" timeLoss="3.02" rerouteNo="0" devices="tripinfo_90" vType="DEFAULT_VEHTYPE" speedFactor="1.02" vaporized=""/>
    <tripinfo id="30" depart="30.00" departLane="gneE9_0" departPos="5.10" departSpeed="0.00" departDelay="0.00" arrival="100.00" arrivalLane="gneE2_0" arrivalPos="185.60" arrivalSpeed="7.83" duration="70.00" routeLength="379.13" waitingTime="23.00" waitingCount="2" stopTime="0.00" timeLoss="40.70" rerouteNo="0" devices="tripinfo_30" vType="DEFAULT_VEHTYPE" speedFactor="0.97" vaporized=""/>
    <tripinfo id="2" depart="2.00" departLane="gneE24_0" departPos="5.10" departSpeed="0.00" departDelay="0.00" arrival="105.00" arrivalLane="gneE23_0" arrivalPos="89.60" arrivalSpeed="11.81" duration="103.00" routeLength="768.59" waitingTime="13.00" waitingCount="2" stopTime="0.00" timeLoss="41.42" rerouteNo="0" devices="tripinfo_2" vType="DEFAULT_VEHTYPE" speedFactor="0.94" vaporized=""/>
    <tripinfo id="27" depart="27.00" departLane="gneE19_0" departPos="5.10" departSpeed="0.00" departDelay="0.00" arrival="115.00" arrivalLane="gneE17_0" arrivalPos="92.80" arrivalSpeed="14.81" duration="88.00" routeLength="585.39" waitingTime="30.00" waitingCount="1" stopTime="0.00" timeLoss="48.94" rerouteNo="0" devices="tripinfo_27" vType="DEFAULT_VEHTYPE" speedFactor="1.16" vaporized=""/>
    <tripinfo id="63" depart="63.00" departLane="-gneE10_0" departPos="5.10" departSpeed="0.00" departDelay="0.00" arrival="120.00" arrivalLane="gneE5_0" arrivalPos="85.60" arrivalSpeed="13.82" duration="57.00" routeLength="573.14" waitingTime="0.00" waitingCount="0" stopTime="0.00" timeLoss="13.97" rerouteNo="0" devices="tripinfo_63" vType="DEFAULT_VEHTYPE" speedFactor="1.00" vaporized=""/>
    <tripinfo id="6" depart="6.00" departLane="-gneE10_0" departPos="5.10" departSpeed="0.00" departDelay="0.00" arrival="122.00" arrivalLane="-gneE21_0" arrivalPos="87.62" arrivalSpeed="13.05" duration="116.00" routeLength="780.42" waitingTime="36.00" waitingCount="2" stopTime="0.00" timeLoss="59.50" rerouteNo="0" devices="tripinfo_6" vType="DEFAULT_VEHTYPE" speedFactor="1.03" vaporized=""/>
    <tripinfo id="73" depart="73.00" departLane="gneE10_0" departPos="5.10" departSpeed="0.00" departDelay="0.00" arrival="126.00" arrivalLane="gneE26_0" arrivalPos="92.80" arrivalSpeed="13.32" duration="53.00" routeLength="491.90" waitingTime="6.00" waitingCount="1" stopTime="0.00" timeLoss="16.58" rerouteNo="0" devices="tripinfo_73" vType="DEFAULT_VEHTYPE" speedFactor="1.00" vaporized=""/>
    <tripinfo id="5" depart="5.00" departLane="-gneE25_0" departPos="5.10" departSpeed="0.00" departDelay="0.00" arrival="128.00" arrivalLane="gneE1_0" arrivalPos="85.60" arrivalSpeed="6.33" duration="123.00" routeLength="774.81" waitingTime="43.00" waitingCount="3" stopTime="0.00" timeLoss="69.14" rerouteNo="0" devices="tripinfo_5" vType="DEFAULT_VEHTYPE" speedFactor="1.08" vaporized=""/>
    <tripinfo id="52" depart="52.00" departLane="-gneE29_0" departPos="5.10" departSpeed="0.00" departDelay="0.00" arrival="131.00" arrivalLane="gneE21_0" arrivalPos="87.62" arrivalSpeed="7.28" duration="79.00" routeLength="413.15" waitingTime="36.00" waitingCount="1" stopTime="0.00" timeLoss="50.78" rerouteNo="0" devices="tripinfo_52" vType="DEFAULT_VEHTYPE" speedFactor="1.10" vaporized=""/>
    <tripinfo id="31" depart="31.00" departLane="gneE11_0" departPos="5.10" departSpeed="0.00" departDelay="0.00" arrival="132.00" arrivalLane="gneE23_0" arrivalPos="89.60" arrivalSpeed="11.24" duration="101.00" routeLength="875.51" waitingTime="6.00" waitingCount="1" stopTime="0.00" timeLoss="29.00" rerouteNo="0" devices="tripinfo_31" vType="DEFAULT_VEHTYPE" speedFactor="0.89" vaporized=""/>
    <tripinfo id="70" depart="71.00" departLane="-gneE8_0" departPos="5.10" departSpeed="0.00" departDelay="1.00" arrival="133.00" arrivalLane="gneE12_0" arrivalPos="85.60" arrivalSpeed="7.29" duration="62.00" routeLength="469.76" waitingTime="2.00" waitingCount="2" stopTime="0.00" timeLoss="26.70" rerouteNo="0" devices="tripinfo_70" vType="DEFAULT_VEHTYPE" speedFactor="1.02" vaporized=""/>
    <tripinfo id="56" depart="56.00" departLane="gneE0_0" departPos="5.10" departSpeed="0.00" departDelay="0.00" arrival="134.00" arrivalLane="-gneE20_0" arrivalPos="92.80" arrivalSpeed="14.74" duration="78.00" routeLength="284.16" waitingTime="48.00" waitingCount="1" stopTime="0.00" timeLoss="58.30" rerouteNo="0" devices="tripinfo_56" vType="DEFAULT_VEHTYPE" speedFactor="1.09" vaporized=""/>
    <tripinfo id="43" depart="43.00" departLane="gneE9_0" departPos="5.10" departSpeed="0.00" departDelay="0.00" arrival="136.00" arrivalLane="gneE1_0" arrivalPos="85.60" arrivalSpeed="8.71" duration="93.00" routeLength="778.50" waitingTime="14.00" waitingCount="2" stopTime="0.00" timeLoss="43.12" rerouteNo="0" devices="tripinfo_43" vType="DEFAULT_VEHTYPE" speedFactor="1.18" vaporized=""/>
    <tripinfo id="85" depart="85.00" departLane="gneE5_0" departPos="5.10" departSpeed="0.00" departDelay="0.00" arrival="138.00" arrivalLane="gneE13_0" arrivalPos="92.80" arrivalSpeed="11.95" duration="53.00" routeLength="287.49" waitingTime="21.00" waitingCount="1" stopTime="0.00" timeLoss="30.04" rerouteNo="0" devices="tripinfo_85" vType="DEFAULT_VEHTYPE" speedFactor="0.94" vaporized=""/>
    <tripinfo id="127" depart="130.00" departLane="gneE9_0" departPos="5.10" departSpeed="0.00" departDelay="3.00" arrival="140.00" arrivalLane="gneE9_0" arrivalPos="89.60" arrivalSpeed="12.08" duration="10.00" routeLength="84.50" waitingTime="0.00" waitingCount="0" stopTime="0.00" timeLoss="2.89" rerouteNo="0" devices="tripinfo_127" vType="DEFAULT_VEHTYPE" speedFactor="0.91" vaporized=""/>
    <tripinfo id="55" depart="55.00" departLane="gneE38_0" departPos="5.10" departSpeed="0.00" departDelay="0.00" arrival="141.00" arrivalLane="-gneE25_0" arrivalPos="92.80" arrivalSpeed="13.17" duration="86.00" routeLength="880.23" waitingTime="0.00" waitingCount="0" stopTime="0.00" timeLoss="16.87" rerouteNo="0" devices="tripinfo_55" vType="DEFAULT_VEHTYPE" speedFactor="0.96" vaporized=""/>
    <tripinfo id="7" depart="7.00" departLane="gneE19_0" departPos="5.10" departSpeed="0.00" departDelay="0.00" arrival="142.00" arrivalLane="gneE11_0" arrivalPos="92.80" arrivalSpeed="10.37" duration="135.00" routeLength="678.58" waitingTime="51.00" waitingCount="3" stopTime="0.00" timeLoss="72.87" rerouteNo="0" devices="tripinfo_7" vType="DEFAULT_VEHTYPE" speedFactor="0.83" vaporized=""/>
    <tripinfo id="51" depart="51.00" departLane="gneE20_0" departPos="5.10" departSpeed="0.00" departDelay="0.00" arrival="144.00" arrivalLane="gneE11_0" arrivalPos="92.80" arrivalSpeed="15.19" duration="93.00" routeLength="584.16" waitingTime="31.00" waitingCount="1" stopTime="0.00" timeLoss="55.86" rerouteNo="0" devices="tripinfo_51" vType="DEFAULT_VEHTYPE" speedFactor="1.18" vaporized=""/>
    <tripinfo id="60" depart="60.00" departLane="gneE25_0" departPos="5.10" departSpeed="0.00" departDelay="0.00" arrival="148.00" arrivalLane="gneE11_0" arrivalPos="92.80" arrivalSpeed="14.67" duration="88.00" routeLength="589.00" waitingTime="25.00" waitingCount="2" stopTime="0.00" timeLoss="45.50" rerouteNo="0" devices="tripinfo_60" vType="DEFAULT_VEHTYPE" speedFactor="1.09" vaporized=""/>
    <tripinfo id="17" depart="17.00" departLane="-gneE36_0" departPos="5.10" departSpeed="0.00" departDelay="0.00" arrival="153.00" arrivalLane="gneE12_0" arrivalPos="85.60" arrivalSpeed="11.35" duration="136.00" routeLength="687.49" waitingTime="67.00" waitingCount="2" stopTime="0.00" timeLoss="90.73" rerouteNo="0" devices="tripinfo_17" vType="DEFAULT_VEHTYPE" speedFactor="1.12" vaporized=""/>
    <tripinfo id="19" depart="19.00" departLane="gneE35_0" departPos="5.10" departSpeed="0.00" departDelay="0.00" arrival="160.00" arrivalLane="gneE13_0" arrivalPos="92.80" arrivalSpeed="13.73" duration="141.00" routeLength="789.32" waitingTime="66.00" waitingCount="1" stopTime="0.00" timeLoss="82.30" rerouteNo="0" devices="tripinfo_19" vType="DEFAULT_VEHTYPE" speedFactor="0.99" vaporized=""/>
    <tripinfo id="4" depart="4.00" departLane="-gneE5_0" departPos="5.10" departSpeed="0.00" departDelay="0.00" arrival="165.00" arrivalLane="-gneE1_0" arrivalPos="85.60" arrivalSpeed="12.80" duration="161.00" routeLength="374.92" waitingTime="119.00" waitingCount="2" stopTime="0.00" timeLoss="133.12" rerouteNo="0" devices="tripinfo_4" vType="DEFAULT_VEHTYPE" speedFactor="1.01" vaporized=""/>
    <tripinfo id="33" depart="33.00" departLane="-gneE26_0" departPos="5.10" departSpeed="0.00" departDelay="0.00" arrival="177.00" arrivalLane="-gneE10_0" arrivalPos="96.80" arrivalSpeed="11.45" duration="144.00" routeLength="491.90" waitingTime="92.00" waitingCount="1" stopTime="0.00" timeLoss="100.25" rerouteNo="0" devices="tripinfo_33" vType="DEFAULT_VEHTYPE" speedFactor="0.83" vaporized=""/>
    <tripinfo id="9" depart="9.00" departLane="gneE3_0" departPos="5.10" departSpeed="0.00" departDelay="0.00" arrival="184.00" arrivalLane="-gneE0_0" arrivalPos="92.80" arrivalSpeed="12.18" duration="175.00" routeLength="671.38" waitingTime="94.00" waitingCount="2" stopTime="0.00" timeLoss="116.47" rerouteNo="0" devices="tripinfo_9" vType="DEFAULT_VEHTYPE" speedFactor="0.89" vaporized=""/>
    <tripinfo id="125" depart="125.00" departLane="-gneE31_0" departPos="5.10" departSpeed="0.00" departDelay="0.00" arrival="187.00" arrivalLane="gneE28_0" arrivalPos="216.45" arrivalSpeed="13.49" duration="62.00" routeLength="503.77" waitingTime="10.00" waitingCount="1" stopTime="0.00" timeLoss="25.60" rerouteNo="0" devices="tripinfo_125" vType="DEFAULT_VEHTYPE" speedFactor="1.06" vaporized=""/>
    <tripinfo id="26" depart="26.00" departLane="-gneE29_0" departPos="5.10" departSpeed="0.00" departDelay="0.00" arrival="188.00" arrivalLane="gneE5_0" arrivalPos="85.60" arrivalSpeed="12.83" duration="162.00" routeLength="707.67" waitingTime="79.00" waitingCount="2" stopTime="0.00" timeLoss="104.14" rerouteNo="0" devices="tripinfo_26" vType="DEFAULT_VEHTYPE" speedFactor="0.94" vaporized=""/>
    <tripinfo id="0" depart="0.00" departLane="gneE18_0" departPos="5.10" departSpeed="0.00" departDelay="0.00" arrival="192.00" arrivalLane="-gneE1_0" arrivalPos="85.60" arrivalSpeed="7.46" duration="192.00" routeLength="682.01" waitingTime="116.00" waitingCount="2" stopTime="0.00" timeLoss="143.91" rerouteNo="0" devices="tripinfo_0" vType="DEFAULT_VEHTYPE" speedFactor="1.06" vaporized=""/>
    <tripinfo id="110" depart="110.00" departLane="gneE7_0" departPos="5.10" departSpeed="0.00" departDelay="0.00" arrival="192.00" arrivalLane="gneE14_0" arrivalPos="89.60" arrivalSpeed="15.74" duration="82.00" routeLength="580.85" waitingTime="16.00" waitingCount="1" stopTime="0.00" timeLoss="43.04" rerouteNo="0" devices="tripinfo_110" vType="DEFAULT_VEHTYPE" speedFactor="1.15" vaporized=""/>
    <tripinfo id="88" depart="88.00" departLane="-gneE17_0" departPos="5.10" departSpeed="0.00" departDelay="0.00" arrival="193.00" arrivalLane="-gneE5_0" arrivalPos="85.60" arrivalSpeed="8.07" duration="105.00" routeLength="182.33" waitingTime="79.00" waitingCount="1" stopTime="0.00" timeLoss="89.38" rerouteNo="0" devices="tripinfo_88" vType="DEFAULT_VEHTYPE" speedFactor="0.91" vaporized=""/>
    <tripinfo id="97" depart="97.00" departLane="-gneE6_0" departPos="5.10" departSpeed="0.00" departDelay="0.00" arrival="193.00" arrivalLane="gneE34_0" arrivalPos="85.60" arrivalSpeed="8.58" duration="96.00" routeLength="282.33" waitingTime="58.00" waitingCount="1" stopTime="0.00" timeLoss="76.01" rerouteNo="0" devices="tripinfo_97" vType="DEFAULT_VEHTYPE" speedFactor="1.06" vaporized=""/>
    <tripinfo id="20" depart="20.00" departLane="gneE22_0" departPos="5.10" departSpeed="0.00" departDelay="0.00" arrival="195.00" arrivalLane="-gneE10_0" arrivalPos="96.80" arrivalSpeed="6.88" duration="175.00" routeLength="579.33" waitingTime="106.00" waitingCount="2" stopTime="0.00" timeLoss="129.32" rerouteNo="0" devices="tripinfo_20" vType="DEFAULT_VEHTYPE" speedFactor="0.93" vaporized=""/>
    <tripinfo id="112" depart="112.00" departLane="-gneE12_0" departPos="5.10" departSpeed="0.00" departDelay="0.00" arrival="195.00" arrivalLane="gneE14_0" arrivalPos="89.60" arrivalSpeed="12.86" duration="83.00" routeLength="668.38" waitingTime="5.00" waitingCount="1" stopTime="0.00" timeLoss="31.50" rerouteNo="0" devices="tripinfo_112" vType="DEFAULT_VEHTYPE" speedFactor="1.00" vaporized=""/>
    <tripinfo id="25" depart="25.00" departLane="-gneE34_0" departPos="5.10" departSpeed="0.00" departDelay="0.00" arrival="197.00" arrivalLane="-gneE22_0" arrivalPos="85.60" arrivalSpeed="8.70" duration="172.00" routeLength="580.18" waitingTime="103.00" waitingCount="2" stopTime="0.00" timeLoss="125.99" rerouteNo="0" devices="tripinfo_25" vType="DEFAULT_VEHTYPE" speedFactor="0.94" vaporized=""/>
    <tripinfo id="48" depart="59.00" departLane="gneE9_0" departPos="5.10" departSpeed="0.00" departDelay="11.00" arrival="198.00" arrivalLane="gneE10_0" arrivalPos="96.80" arrivalSpeed="12.77" duration="139.00" routeLength="1076.72" waitingTime="20.00" waitingCount="1" stopTime="0.00" timeLoss="57.34" rerouteNo="0" devices="tripinfo_48" vType="DEFAULT_VEHTYPE" speedFactor="0.99" vaporized=""/>
    <tripinfo id="71" depart="71.00" departLane="-gneE28_0" departPos="5.10" departSpeed="0.00" departDelay="0.00" arrival="198.00" arrivalLane="gneE34_0" arrivalPos="85.60" arrivalSpeed="14.71" duration="127.00" routeLength="699.16" waitingTime="50.00" waitingCount="2" stopTime="0.00" timeLoss="78.54" rerouteNo="0" devices="tripinfo_71" vType="DEFAULT_VEHTYPE" speedFactor="1.10" vaporized=""/>
    <tripinfo id="11" depart="11.00" departLane="-gneE32_0" departPos="5.10" departSpeed="0.00" departDelay="0.00" arrival="200.00" arrivalLane="-gneE19_0" arrivalPos="92.80" arrivalSpeed="11.52" duration="189.00" routeLength="1010.21" waitingTime="79.00" waitingCount="1" stopTime="0.00" timeLoss="100.79" rerouteNo="0" devices="tripinfo_11" vType="DEFAULT_VEHTYPE" speedFactor="0.86" vaporized=""/>
    <tripinfo id="107" depart="107.00" departLane="gneE7_0" departPos="5.10" departSpeed="0.00" departDelay="0.00" arrival="208.00" arrivalLane="gneE9_0" arrivalPos="89.60" arrivalSpeed="13.66" duration="101.00" routeLength="773.34" waitingTime="17.00" waitingCount="1" stopTime="0.00" timeLoss="44.57" rerouteNo="0" devices="tripinfo_107" vType="DEFAULT_VEHTYPE" speedFactor="1.02" vaporized=""/>
    <tripinfo id="179" depart="179.00" departLane="-gneE17_0" departPos="5.10" departSpeed="0.00" departDelay="0.00" arrival="209.00" arrivalLane="-gneE5_0" arrivalPos="85.60" arrivalSpeed="8.95" duration="30.00" routeLength="182.33" waitingTime="0.00" waitingCount="0" stopTime="0.00" timeLoss="16.73" rerouteNo="0" devices="tripinfo_179" vType="DEFAULT_VEHTYPE" speedFactor="1.07" vaporized=""/>
    <tripinfo id="38" depart="38.00" departLane="gneE4_0" departPos="5.10" departSpeed="0.00" departDelay="0.00" arrival="210.00" arrivalLane="-gneE7_0" arrivalPos="92.80" arrivalSpeed="11.56" duration="172.00" routeLength="587.17" waitingTime="100.00" waitingCount="2" stopTime="0.00" timeLoss="123.55" rerouteNo="0" devices="tripinfo_38" vType="DEFAULT_VEHTYPE" speedFactor="0.92" vaporized=""/>
    <tripinfo id="49" depart="49.00" departLane="gneE8_0" departPos="5.10" departSpeed="0.00" departDelay="0.00" arrival="213.00" arrivalLane="gneE34_0" arrivalPos="85.60" arrivalSpeed="13.95" duration="164.00" routeLength="781.73" waitingTime="82.00" waitingCount="2" stopTime="0.00" timeLoss="107.09" rerouteNo="0" devices="tripinfo_49" vType="DEFAULT_VEHTYPE" speedFactor="1.02" vaporized=""/>
    <tripinfo id="76" depart="79.00" departLane="-gneE6_0" departPos="5.10" departSpeed="0.00" departDelay="3.00" arrival="213.00" arrivalLane="gneE10_0" arrivalPos="96.80" arrivalSpeed="15.28" duration="134.00" routeLength="596.03" waitingTime="71.00" waitingCount="1" stopTime="0.00" timeLoss="93.95" rerouteNo="0" devices="tripinfo_76" vType="DEFAULT_VEHTYPE" speedFactor="1.14" vaporized=""/>
    <tripinfo id="128" depart="129.00" departLane="-gneE13_0" departPos="5.10" departSpeed="0.00" departDelay="1.00" arrival="213.00" arrivalLane="-gneE22_0" arrivalPos="85.60" arrivalSpeed="14.90" duration="84.00" routeLength="476.85" waitingTime="24.00" waitingCount="2" stopTime="0.00" timeLoss="51.13" rerouteNo="0" devices="tripinfo_128" vType="DEFAULT_VEHTYPE" speedFactor="1.12" vaporized=""/>
    <tripinfo id="117" depart="117.00" departLane="-gneE27_0" departPos="5.10" departSpeed="0.00" departDelay="0.00" arrival="216.00" arrivalLane="-gneE17_0" arrivalPos="92.80" arrivalSpeed="13.93" duration="99.00" routeLength="387.59" waitingTime="59.00" waitingCount="1" stopTime="0.00" timeLoss="69.97" rerouteNo="0" devices="tripinfo_117" vType="DEFAULT_VEHTYPE" speedFactor="1.02" vaporized=""/>
    <tripinfo id="72" depart="75.00" departLane="-gneE5_0" departPos="5.10" departSpeed="0.00" departDelay="3.00" arrival="217.00" arrivalLane="-gneE22_0" arrivalPos="85.60" arrivalSpeed="13.06" duration="142.00" routeLength="1053.74" waitingTime="26.00" waitingCount="2" stopTime="0.00" timeLoss="62.63" rerouteNo="0" devices="tripinfo_72" vType="DEFAULT_VEHTYPE" speedFactor="1.00" vaporized=""/>
    <tripinfo id="134" depart="134.00" departLane="gneE19_0" departPos="5.10" departSpeed="0.00" departDelay="0.00" arrival="218.00" arrivalLane="-gneE0_0" arrivalPos="92.80" arrivalSpeed="13.04" duration="84.00" routeLength="394.48" waitingTime="36.00" waitingCount="1" stopTime="0.00" timeLoss="51.85" rerouteNo="0" devices="tripinfo_134" vType="DEFAULT_VEHTYPE" speedFactor="0.95" vaporized=""/>
    <tripinfo id="24" depart="24.00" departLane="gneE18_0" departPos="5.10" departSpeed="0.00" departDelay="0.00" arrival="219.00" arrivalLane="-gneE35_0" arrivalPos="292.80" arrivalSpeed="11.76" duration="195.00" routeLength="889.00" waitingTime="90.00" waitingCount="2" stopTime="0.00" timeLoss="118.22" rerouteNo="0" devices="tripinfo_24" vType="DEFAULT_VEHTYPE" speedFactor="0.88" vaporized=""/>
    <tripinfo id="126" depart="126.00" departLane="-gneE13_0" departPos="5.10" departSpeed="0.00" departDelay="0.00" arrival="221.00" arrivalLane="-gneE7_0" arrivalPos="92.80" arrivalSpeed="12.80" duration="95.00" routeLength="583.84" waitingTime="27.00" waitingCount="2" stopTime="0.00" timeLoss="50.59" rerouteNo="0" devices="tripinfo_126" vType="DEFAULT_VEHTYPE" speedFactor="1.01" vaporized=""/>
    <tripinfo id="168" depart="168.00" departLane="-gneE26_0" departPos="5.10" departSpeed="0.00" departDelay="0.00" arrival="221.00" arrivalLane="gneE31_0" arrivalPos="94.82" arrivalSpeed="13.72" duration="53.00" routeLength="478.36" waitingTime="0.00" waitingCount="0" stopTime="0.00" timeLoss="18.09" rerouteNo="0" devices="tripinfo_168" vType="DEFAULT_VEHTYPE" speedFactor="1.02" vaporized=""/>
    <tripinfo id="164" depart="165.00" departLane="gneE3_0" departPos="5.10" departSpeed="0.00" departDelay="1.00" arrival="224.00" arrivalLane="gneE34_0" arrivalPos="85.60" arrivalSpeed="8.34" duration="59.00" routeLength="280.29" waitingTime="26.00" waitingCount="1" stopTime="0.00" timeLoss="39.90" rerouteNo="0" devices="tripinfo_164" vType="DEFAULT_VEHTYPE" speedFactor="1.10" vaporized=""/>
    <tripinfo id="66" depart="67.00" departLane="gneE38_0" departPos="5.10" departSpeed="0.00" departDelay="1.00" arrival="225.00" arrivalLane="gneE6_0" arrivalPos="92.80" arrivalSpeed="10.66" duration="158.00" routeLength="690.87" waitingTime="78.00" waitingCount="1" stopTime="0.00" timeLoss="97.16" rerouteNo="0" devices="tripinfo_66" vType="DEFAULT_VEHTYPE" speedFactor="0.85" vaporized=""/>
    <tripinfo id="103" depart="106.00" departLane="-gneE4_0" departPos="5.10" departSpeed="0.00" departDelay="3.00" arrival="228.00" arrivalLane="-gneE11_0" arrivalPos="92.80" arrivalSpeed="10.45" duration="122.00" routeLength="781.52" waitingTime="46.00" waitingCount="1" stopTime="0.00" timeLoss="63.26" rerouteNo="0" devices="tripinfo_103" vType="DEFAULT_VEHTYPE" speedFactor="1.01" vaporized=""/>
    <tripinfo id="57" depart="58.00" departLane="gneE4_0" departPos="5.10" departSpeed="0.00" departDelay="1.00" arrival="229.00" arrivalLane="gneE34_0" arrivalPos="85.60" arrivalSpeed="13.71" duration="171.00" routeLength="664.18" waitingTime="82.00" waitingCount="3" stopTime="0.00" timeLoss="122.72" rerouteNo="0" devices="tripinfo_57" vType="DEFAULT_VEHTYPE" speedFactor="1.04" vaporized=""/>
    <tripinfo id="118" depart="118.00" departLane="gneE38_0" departPos="5.10" departSpeed="0.00" departDelay="0.00" arrival="229.00" arrivalLane="-gneE24_0" arrivalPos="85.60" arrivalSpeed="11.64" duration="111.00" routeLength="683.56" waitingTime="33.00" waitingCount="2" stopTime="0.00" timeLoss="53.35" rerouteNo="0" devices="tripinfo_118" vType="DEFAULT_VEHTYPE" speedFactor="0.89" vaporized=""/>
    <tripinfo id="44" depart="44.00" departLane="-gneE14_0" departPos="5.10" departSpeed="0.00" departDelay="0.00" arrival="230.00" arrivalLane="-gneE11_0" arrivalPos="92.80" arrivalSpeed="10.97" duration="186.00" routeLength="885.52" waitingTime="99.00" waitingCount="3" stopTime="0.00" timeLoss="129.14" rerouteNo="0" devices="tripinfo_44" vType="DEFAULT_VEHTYPE" speedFactor="1.15" vaporized=""/>
    <tripinfo id="86" depart="86.00" departLane="-gneE8_0" departPos="5.10" departSpeed="0.00" departDelay="0.00" arrival="230.00" arrivalLane="gneE3_0" arrivalPos="185.60" arrivalSpeed="8.70" duration="144.00" routeLength="375.13" waitingTime="89.00" waitingCount="1" stopTime="0.00" timeLoss="112.05" rerouteNo="0" devices="tripinfo_86" vType="DEFAULT_VEHTYPE" speedFactor="0.88" vaporized=""/>
    <tripinfo id="148" depart="148.00" departLane="-gneE5_0" departPos="5.10" departSpeed="0.00" departDelay="0.00" arrival="231.00" arrivalLane="-gneE0_0" arrivalPos="92.80" arrivalSpeed="14.36" duration="83.00" routeLength="487.49" waitingTime="33.00" waitingCount="1" stopTime="0.00" timeLoss="50.05" rerouteNo="0" devices="tripinfo_148" vType="DEFAULT_VEHTYPE" speedFactor="1.10" vaporized=""/>
    <tripinfo id="121" depart="121.00" departLane="gneE1_0" departPos="5.10" departSpeed="0.00" departDelay="0.00" arrival="232.00" arrivalLane="gneE5_0" arrivalPos="85.60" arrivalSpeed="11.18" duration="111.00" routeLength="374.92" waitingTime="64.00" waitingCount="1" stopTime="0.00" timeLoss="76.46" rerouteNo="0" devices="tripinfo_121" vType="DEFAULT_VEHTYPE" speedFactor="0.83" vaporized=""/>
    <tripinfo id="45" depart="45.00" departLane="-gneE18_0" departPos="5.10" departSpeed="0.00" departDelay="0.00" arrival="233.00" arrivalLane="gneE2_0" arrivalPos="185.60" arrivalSpeed="7.28" duration="188.00" routeLength="865.93" waitingTime="80.00" waitingCount="4" stopTime="0.00" timeLoss="123.67" rerouteNo="0" devices="tripinfo_45" vType="DEFAULT_VEHTYPE" speedFactor="1.01" vaporized=""/>
    <tripinfo id="87" depart="87.00" departLane="gneE3_0" departPos="5.10" departSpeed="0.00" departDelay="0.00" arrival="234.00" arrivalLane="-gneE21_0" arrivalPos="87.62" arrivalSpeed="11.84" duration="147.00" routeLength="576.83" waitingTime="73.00" waitingCount="2" stopTime="0.00" timeLoss="98.60" rerouteNo="0" devices="tripinfo_87" vType="DEFAULT_VEHTYPE" speedFactor="0.91" vaporized=""/>
    <tripinfo id="80" depart="80.00" departLane="-gneE13_0" departPos="5.10" departSpeed="0.00" departDelay="0.00" arrival="237.00" arrivalLane="gneE2_0" arrivalPos="185.60" arrivalSpeed="11.29" duration="157.00" routeLength="678.61" waitingTime="71.00" waitingCount="2" stopTime="0.00" timeLoss="105.40" rerouteNo="0" devices="tripinfo_80" vType="DEFAULT_VEHTYPE" speedFactor="0.97" vaporized=""/>
    <tripinfo id="136" depart="138.00" departLane="gneE2_0" departPos="5.10" departSpeed="0.00" departDelay="2.00" arrival="237.00" arrivalLane="gneE6_0" arrivalPos="92.80" arrivalSpeed="11.24" duration="99.00" routeLength="287.70" waitingTime="63.00" waitingCount="1" stopTime="0.00" timeLoss="75.23" rerouteNo="0" devices="tripinfo_136" vType="DEFAULT_VEHTYPE" speedFactor="0.89" vaporized=""/>
    <tripinfo id="124" depart="124.00" departLane="gneE2_0" departPos="5.10" departSpeed="0.00" departDelay="0.00" arrival="244.00" arrivalLane="-gneE3_0" arrivalPos="185.60" arrivalSpeed="15.04" duration="120.00" routeLength="480.08" waitingTime="75.00" waitingCount="1" stopTime="0.00" timeLoss="86.33" rerouteNo="0" devices="tripinfo_124" vType="DEFAULT_VEHTYPE" speedFactor="1.09" vaporized=""/>
    <tripinfo id="194" depart="194.00" departLane="gneE6_0" departPos="5.10" departSpeed="0.00" departDelay="0.00" arrival="244.00" arrivalLane="gneE23_0" arrivalPos="89.60" arrivalSpeed="16.10" duration="50.00" routeLength="284.60" waitingTime="16.00" waitingCount="1" stopTime="0.00" timeLoss="31.42" rerouteNo="0" devices="tripinfo_194" vType="DEFAULT_VEHTYPE" speedFactor="1.16" vaporized=""/>
    <tripinfo id="161" depart="161.00" departLane="gneE3_0" departPos="5.10" departSpeed="0.00" departDelay="0.00" arrival="247.00" arrivalLane="gneE36_0" arrivalPos="292.80" arrivalSpeed="12.90" duration="86.00" routeLength="582.12" waitingTime="29.00" waitingCount="1" stopTime="0.00" timeLoss="42.05" rerouteNo="0" devices="tripinfo_161" vType="DEFAULT_VEHTYPE" speedFactor="0.99" vaporized=""/>
    <tripinfo id="111" depart="120.00" departLane="gneE10_0" departPos="5.10" departSpeed="0.00" departDelay="9.00" arrival="251.00" arrivalLane="gneE27_0" arrivalPos="92.80" arrivalSpeed="13.45" duration="131.00" routeLength="486.53" waitingTime="80.00" waitingCount="1" stopTime="0.00" timeLoss="93.69" rerouteNo="0" devices="tripinfo_111" vType="DEFAULT_VEHTYPE" speedFactor="0.98" vaporized=""/>
    <tripinfo id="176" depart="176.00" departLane="gneE6_0" departPos="5.10" departSpeed="0.00" departDelay="0.00" arrival="255.00" arrivalLane="-gneE17_0" arrivalPos="92.80" arrivalSpeed="14.78" duration="79.00" routeLength="469.96" waitingTime="30.00" waitingCount="1" stopTime="0.00" timeLoss="46.89" rerouteNo="0" devices="tripinfo_176" vType="DEFAULT_VEHTYPE" speedFactor="1.12" vaporized=""/>
    <tripinfo id="185" depart="191.00" departLane="gneE10_0" departPos="5.10" departSpeed="0.00" departDelay="6.00" arrival="255.00" arrivalLane="gneE26_0" arrivalPos="92.80" arrivalSpeed="13.64" duration="64.00" routeLength="491.90" waitingTime="16.00" waitingCount="1" stopTime="0.00" timeLoss="28.21" rerouteNo="0" devices="tripinfo_185" vType="DEFAULT_VEHTYPE" speedFactor="1.01" vaporized=""/>
    <tripinfo id="138" depart="138.00" departLane="-gneE17_0" departPos="5.10" departSpeed="0.00" departDelay="0.00" arrival="264.00" arrivalLane="gneE12_0" arrivalPos="85.60" arrivalSpeed="8.15" duration="126.00" routeLength="187.49" waitingTime="96.00" waitingCount="2" stopTime="0.00" timeLoss="112.24" rerouteNo="0" devices="tripinfo_138" vType="DEFAULT_VEHTYPE" speedFactor="1.01" vaporized=""/>